
data_G_102819

_audit_creation_date              '3/26/2020 4:57:29 AM'
_audit_creation_method            'Generated by HighScore Plus 3.0.5'

_database_code_ICSD               102819

_chemical_name_systematic         
;
G_102819
;

_chemical_formula_structural      
;
(Cr Ni)
;

_chemical_formula_sum             
;
Cr1.20 Ni2.00 Fe0.80
;

_publ_section_title               
;
The constitution of nickel-rich alloys of the nickel-chromium-Titanium system
;

_publ_author_name                 
;
Taylor, A., Floyd, R.W.
;


loop_
 _symmetry_equiv_pos_as_xyz
 'X, Y, Z'
 '-Y, X, Z'
 '-X, -Y, Z'
 'Y, -X, Z'
 'X, -Z, Y'
 'X, -Y, -Z'
 'X, Z, -Y'
 'Z, Y, -X'
 '-X, Y, -Z'
 '-Z, Y, X'
 'Z, X, Y'
 'Y, Z, X'
 '-Y, -Z, X'
 'Z, -X, -Y'
 '-Y, Z, -X'
 '-Z, -X, Y'
 '-Z, X, -Y'
 'Y, -Z, -X'
 'Y, X, -Z'
 '-Y, -X, -Z'
 '-X, Z, Y'
 '-X, -Z, -Y'
 'Z, -Y, X'
 '-Z, -Y, -X'
 '-X, -Y, -Z'
 'Y, -X, -Z'
 'X, Y, -Z'
 '-Y, X, -Z'
 '-X, Z, -Y'
 '-X, Y, Z'
 '-X, -Z, Y'
 '-Z, -Y, X'
 'X, -Y, Z'
 'Z, -Y, -X'
 '-Z, -X, -Y'
 '-Y, -Z, -X'
 'Y, Z, -X'
 '-Z, X, Y'
 'Y, -Z, X'
 'Z, X, -Y'
 'Z, -X, Y'
 '-Y, Z, X'
 '-Y, -X, Z'
 'Y, X, Z'
 'X, -Z, -Y'
 'X, Z, Y'
 '-Z, Y, -X'
 'Z, Y, X'
 'X, Y+1/2, Z+1/2'
 '-Y, X+1/2, Z+1/2'
 '-X, -Y+1/2, Z+1/2'
 'Y, -X+1/2, Z+1/2'
 'X, -Z+1/2, Y+1/2'
 'X, -Y+1/2, -Z+1/2'
 'X, Z+1/2, -Y+1/2'
 'Z, Y+1/2, -X+1/2'
 '-X, Y+1/2, -Z+1/2'
 '-Z, Y+1/2, X+1/2'
 'Z, X+1/2, Y+1/2'
 'Y, Z+1/2, X+1/2'
 '-Y, -Z+1/2, X+1/2'
 'Z, -X+1/2, -Y+1/2'
 '-Y, Z+1/2, -X+1/2'
 '-Z, -X+1/2, Y+1/2'
 '-Z, X+1/2, -Y+1/2'
 'Y, -Z+1/2, -X+1/2'
 'Y, X+1/2, -Z+1/2'
 '-Y, -X+1/2, -Z+1/2'
 '-X, Z+1/2, Y+1/2'
 '-X, -Z+1/2, -Y+1/2'
 'Z, -Y+1/2, X+1/2'
 '-Z, -Y+1/2, -X+1/2'
 '-X, -Y+1/2, -Z+1/2'
 'Y, -X+1/2, -Z+1/2'
 'X, Y+1/2, -Z+1/2'
 '-Y, X+1/2, -Z+1/2'
 '-X, Z+1/2, -Y+1/2'
 '-X, Y+1/2, Z+1/2'
 '-X, -Z+1/2, Y+1/2'
 '-Z, -Y+1/2, X+1/2'
 'X, -Y+1/2, Z+1/2'
 'Z, -Y+1/2, -X+1/2'
 '-Z, -X+1/2, -Y+1/2'
 '-Y, -Z+1/2, -X+1/2'
 'Y, Z+1/2, -X+1/2'
 '-Z, X+1/2, Y+1/2'
 'Y, -Z+1/2, X+1/2'
 'Z, X+1/2, -Y+1/2'
 'Z, -X+1/2, Y+1/2'
 '-Y, Z+1/2, X+1/2'
 '-Y, -X+1/2, Z+1/2'
 'Y, X+1/2, Z+1/2'
 'X, -Z+1/2, -Y+1/2'
 'X, Z+1/2, Y+1/2'
 '-Z, Y+1/2, -X+1/2'
 'Z, Y+1/2, X+1/2'
 'X+1/2, Y, Z+1/2'
 '-Y+1/2, X, Z+1/2'
 '-X+1/2, -Y, Z+1/2'
 'Y+1/2, -X, Z+1/2'
 'X+1/2, -Z, Y+1/2'
 'X+1/2, -Y, -Z+1/2'
 'X+1/2, Z, -Y+1/2'
 'Z+1/2, Y, -X+1/2'
 '-X+1/2, Y, -Z+1/2'
 '-Z+1/2, Y, X+1/2'
 'Z+1/2, X, Y+1/2'
 'Y+1/2, Z, X+1/2'
 '-Y+1/2, -Z, X+1/2'
 'Z+1/2, -X, -Y+1/2'
 '-Y+1/2, Z, -X+1/2'
 '-Z+1/2, -X, Y+1/2'
 '-Z+1/2, X, -Y+1/2'
 'Y+1/2, -Z, -X+1/2'
 'Y+1/2, X, -Z+1/2'
 '-Y+1/2, -X, -Z+1/2'
 '-X+1/2, Z, Y+1/2'
 '-X+1/2, -Z, -Y+1/2'
 'Z+1/2, -Y, X+1/2'
 '-Z+1/2, -Y, -X+1/2'
 '-X+1/2, -Y, -Z+1/2'
 'Y+1/2, -X, -Z+1/2'
 'X+1/2, Y, -Z+1/2'
 '-Y+1/2, X, -Z+1/2'
 '-X+1/2, Z, -Y+1/2'
 '-X+1/2, Y, Z+1/2'
 '-X+1/2, -Z, Y+1/2'
 '-Z+1/2, -Y, X+1/2'
 'X+1/2, -Y, Z+1/2'
 'Z+1/2, -Y, -X+1/2'
 '-Z+1/2, -X, -Y+1/2'
 '-Y+1/2, -Z, -X+1/2'
 'Y+1/2, Z, -X+1/2'
 '-Z+1/2, X, Y+1/2'
 'Y+1/2, -Z, X+1/2'
 'Z+1/2, X, -Y+1/2'
 'Z+1/2, -X, Y+1/2'
 '-Y+1/2, Z, X+1/2'
 '-Y+1/2, -X, Z+1/2'
 'Y+1/2, X, Z+1/2'
 'X+1/2, -Z, -Y+1/2'
 'X+1/2, Z, Y+1/2'
 '-Z+1/2, Y, -X+1/2'
 'Z+1/2, Y, X+1/2'
 'X+1/2, Y+1/2, Z'
 '-Y+1/2, X+1/2, Z'
 '-X+1/2, -Y+1/2, Z'
 'Y+1/2, -X+1/2, Z'
 'X+1/2, -Z+1/2, Y'
 'X+1/2, -Y+1/2, -Z'
 'X+1/2, Z+1/2, -Y'
 'Z+1/2, Y+1/2, -X'
 '-X+1/2, Y+1/2, -Z'
 '-Z+1/2, Y+1/2, X'
 'Z+1/2, X+1/2, Y'
 'Y+1/2, Z+1/2, X'
 '-Y+1/2, -Z+1/2, X'
 'Z+1/2, -X+1/2, -Y'
 '-Y+1/2, Z+1/2, -X'
 '-Z+1/2, -X+1/2, Y'
 '-Z+1/2, X+1/2, -Y'
 'Y+1/2, -Z+1/2, -X'
 'Y+1/2, X+1/2, -Z'
 '-Y+1/2, -X+1/2, -Z'
 '-X+1/2, Z+1/2, Y'
 '-X+1/2, -Z+1/2, -Y'
 'Z+1/2, -Y+1/2, X'
 '-Z+1/2, -Y+1/2, -X'
 '-X+1/2, -Y+1/2, -Z'
 'Y+1/2, -X+1/2, -Z'
 'X+1/2, Y+1/2, -Z'
 '-Y+1/2, X+1/2, -Z'
 '-X+1/2, Z+1/2, -Y'
 '-X+1/2, Y+1/2, Z'
 '-X+1/2, -Z+1/2, Y'
 '-Z+1/2, -Y+1/2, X'
 'X+1/2, -Y+1/2, Z'
 'Z+1/2, -Y+1/2, -X'
 '-Z+1/2, -X+1/2, -Y'
 '-Y+1/2, -Z+1/2, -X'
 'Y+1/2, Z+1/2, -X'
 '-Z+1/2, X+1/2, Y'
 'Y+1/2, -Z+1/2, X'
 'Z+1/2, X+1/2, -Y'
 'Z+1/2, -X+1/2, Y'
 '-Y+1/2, Z+1/2, X'
 '-Y+1/2, -X+1/2, Z'
 'Y+1/2, X+1/2, Z'
 'X+1/2, -Z+1/2, -Y'
 'X+1/2, Z+1/2, Y'
 '-Z+1/2, Y+1/2, -X'
 'Z+1/2, Y+1/2, X'

_xact_pref_orient_vector_h        0.00000000
_xact_pref_orient_vector_k        0.00000000
_xact_pref_orient_vector_l        1.00000000
_xact_pref_orient_param           1.000000
_xact_scale_factor                0.000100
_xact_cagliotti_U                 0.000000
_xact_cagliotti_V                 0.000000
_xact_cagliotti_W                 0.010000
_xact_shape_param_1               0.600000
_xact_shape_param_2               0.000000
_xact_shape_param_3               0.000000
_xact_asym_param_1                0.000000
_xact_asym_param_2                0.000000
_cell_length_a                    3.598000
_cell_length_b                    3.598000
_cell_length_c                    3.598000
_cell_angle_alpha                 90
_cell_angle_beta                  90
_cell_angle_gamma                 90

_symmetry_space_group_name_H-M    'F m -3 m'
_symmetry_Int_Tables_number       225


loop_
 _atom_site_label
 _atom_site_type_symbol
 _atom_site_fract_x
 _atom_site_fract_y
 _atom_site_fract_z
 _atom_site_U_iso_or_equiv
 _atom_site_thermal_displace_type
 _atom_site_occupancy
 _atom_site_symmetry_multiplicity
 _atom_site_Wyckoff_symbol
 _atom_site_calc_flag
Cr1 Cr 0.000000 0.000000 0.000000 0.006966 Uiso 0.300000 4 a d
Ni1 Ni 0.000000 0.000000 0.000000 0.006966 Uiso 0.500000 4 a d
Fe1 Fe 0.000000 0.000000 0.000000 0.006966 Uiso 0.200000 4 a d

loop_
 _atom_site_aniso_label
 _atom_site_aniso_U_11
 _atom_site_aniso_U_22
 _atom_site_aniso_U_33
 _atom_site_aniso_U_23
 _atom_site_aniso_U_13
 _atom_site_aniso_U_12
Cr1 0.000000 0.000000 0.000000 0.000000 0.000000 0.000000 
Ni1 0.000000 0.000000 0.000000 0.000000 0.000000 0.000000 
Fe1 0.000000 0.000000 0.000000 0.000000 0.000000 0.000000 


data_G'_58039

_audit_creation_date              '3/26/2020 4:57:29 AM'
_audit_creation_method            'Generated by HighScore Plus 3.0.5'

_database_code_ICSD                58039

_chemical_name_systematic         
;
G'_58039
;

_chemical_formula_structural      
;
Al Ni3
;

_chemical_formula_sum             
;
Al0.63 Ni3.00 Ti0.37
;

_publ_section_title               
;
Structure of Ni3 Al alloys with additions of a third element
;

_publ_author_name                 
;
Arbuzov, M.P., Zelenkov, I.A.
;


loop_
 _symmetry_equiv_pos_as_xyz
 'X, Y, Z'
 '-Y, X, Z'
 '-X, -Y, Z'
 'Y, -X, Z'
 'X, -Z, Y'
 'X, -Y, -Z'
 'X, Z, -Y'
 'Z, Y, -X'
 '-X, Y, -Z'
 '-Z, Y, X'
 'Z, X, Y'
 'Y, Z, X'
 '-Y, -Z, X'
 'Z, -X, -Y'
 '-Y, Z, -X'
 '-Z, -X, Y'
 '-Z, X, -Y'
 'Y, -Z, -X'
 'Y, X, -Z'
 '-Y, -X, -Z'
 '-X, Z, Y'
 '-X, -Z, -Y'
 'Z, -Y, X'
 '-Z, -Y, -X'
 '-X, -Y, -Z'
 'Y, -X, -Z'
 'X, Y, -Z'
 '-Y, X, -Z'
 '-X, Z, -Y'
 '-X, Y, Z'
 '-X, -Z, Y'
 '-Z, -Y, X'
 'X, -Y, Z'
 'Z, -Y, -X'
 '-Z, -X, -Y'
 '-Y, -Z, -X'
 'Y, Z, -X'
 '-Z, X, Y'
 'Y, -Z, X'
 'Z, X, -Y'
 'Z, -X, Y'
 '-Y, Z, X'
 '-Y, -X, Z'
 'Y, X, Z'
 'X, -Z, -Y'
 'X, Z, Y'
 '-Z, Y, -X'
 'Z, Y, X'

_xact_pref_orient_vector_h        0.00000000
_xact_pref_orient_vector_k        0.00000000
_xact_pref_orient_vector_l        1.00000000
_xact_pref_orient_param           1.000000
_xact_scale_factor                0.000100
_xact_cagliotti_U                 0.000000
_xact_cagliotti_V                 0.000000
_xact_cagliotti_W                 0.010000
_xact_shape_param_1               0.600000
_xact_shape_param_2               0.000000
_xact_shape_param_3               0.000000
_xact_asym_param_1                0.000000
_xact_asym_param_2                0.000000
_cell_length_a                    3.570000
_cell_length_b                    3.570000
_cell_length_c                    3.570000
_cell_angle_alpha                 90
_cell_angle_beta                  90
_cell_angle_gamma                 90

_symmetry_space_group_name_H-M    'P m -3 m'
_symmetry_Int_Tables_number       221


loop_
 _atom_site_label
 _atom_site_type_symbol
 _atom_site_fract_x
 _atom_site_fract_y
 _atom_site_fract_z
 _atom_site_U_iso_or_equiv
 _atom_site_thermal_displace_type
 _atom_site_occupancy
 _atom_site_symmetry_multiplicity
 _atom_site_Wyckoff_symbol
 _atom_site_calc_flag
Al1 Al 0.000000 0.000000 0.000000 0.008232 Uiso 0.630000 1 a d
Ni1 Ni 0.000000 0.500000 0.500000 0.008232 Uiso 1.000000 3 c d
Ti1 Ti 0.000000 0.000000 0.000000 0.008232 Uiso 0.370000 1 a d

loop_
 _atom_site_aniso_label
 _atom_site_aniso_U_11
 _atom_site_aniso_U_22
 _atom_site_aniso_U_33
 _atom_site_aniso_U_23
 _atom_site_aniso_U_13
 _atom_site_aniso_U_12
Al1 0.000000 0.000000 0.000000 0.000000 0.000000 0.000000 
Ni1 0.000000 0.000000 0.000000 0.000000 0.000000 0.000000 
Ti1 0.000000 0.000000 0.000000 0.000000 0.000000 0.000000 


data_G"_105175

_audit_creation_date              '3/26/2020 4:57:29 AM'
_audit_creation_method            'Generated by HighScore Plus 3.0.5'

_database_code_ICSD               105175

_chemical_name_systematic         
;
G"_105175
;

_chemical_formula_structural      
;
Nb Ni3
;

_chemical_formula_sum             
;
Nb1.90 Ni6.00 Ti0.10
;

_publ_section_title               
;
Intensity anomalies in the X-ray diffraction pattern  of Ni3 Nb and their relationship to those for martensite
;

_publ_author_name                 
;
Kaufman, A., Hoffman, N.J., Lipson, H.
;


loop_
 _symmetry_equiv_pos_as_xyz
 'X, Y, Z'
 '-Y, X, Z'
 '-X, -Y, Z'
 'Y, -X, Z'
 'X, -Y, -Z'
 '-X, Y, -Z'
 'Y, X, -Z'
 '-Y, -X, -Z'
 '-X, -Y, -Z'
 'Y, -X, -Z'
 'X, Y, -Z'
 '-Y, X, -Z'
 '-X, Y, Z'
 'X, -Y, Z'
 '-Y, -X, Z'
 'Y, X, Z'
 'X+1/2, Y+1/2, Z+1/2'
 '-Y+1/2, X+1/2, Z+1/2'
 '-X+1/2, -Y+1/2, Z+1/2'
 'Y+1/2, -X+1/2, Z+1/2'
 'X+1/2, -Y+1/2, -Z+1/2'
 '-X+1/2, Y+1/2, -Z+1/2'
 'Y+1/2, X+1/2, -Z+1/2'
 '-Y+1/2, -X+1/2, -Z+1/2'
 '-X+1/2, -Y+1/2, -Z+1/2'
 'Y+1/2, -X+1/2, -Z+1/2'
 'X+1/2, Y+1/2, -Z+1/2'
 '-Y+1/2, X+1/2, -Z+1/2'
 '-X+1/2, Y+1/2, Z+1/2'
 'X+1/2, -Y+1/2, Z+1/2'
 '-Y+1/2, -X+1/2, Z+1/2'
 'Y+1/2, X+1/2, Z+1/2'

_xact_pref_orient_vector_h        0.00000000
_xact_pref_orient_vector_k        0.00000000
_xact_pref_orient_vector_l        1.00000000
_xact_pref_orient_param           1.000000
_xact_scale_factor                0.000100
_xact_cagliotti_U                 0.000000
_xact_cagliotti_V                 0.000000
_xact_cagliotti_W                 0.010000
_xact_shape_param_1               0.600000
_xact_shape_param_2               0.000000
_xact_shape_param_3               0.000000
_xact_asym_param_1                0.000000
_xact_asym_param_2                0.000000
_cell_length_a                    3.600000
_cell_length_b                    3.600000
_cell_length_c                    7.400000
_cell_angle_alpha                 90
_cell_angle_beta                  90
_cell_angle_gamma                 90

_symmetry_space_group_name_H-M    'I 4/m m m'
_symmetry_Int_Tables_number       139


loop_
 _atom_site_label
 _atom_site_type_symbol
 _atom_site_fract_x
 _atom_site_fract_y
 _atom_site_fract_z
 _atom_site_U_iso_or_equiv
 _atom_site_thermal_displace_type
 _atom_site_occupancy
 _atom_site_symmetry_multiplicity
 _atom_site_Wyckoff_symbol
 _atom_site_calc_flag
Nb1 Nb 0.000000 0.000000 0.000000 0.009499 Uiso 0.950000 2 a d
Ni1 Ni 0.000000 0.000000 0.500000 0.008866 Uiso 1.000000 2 b d
Ni2 Ni 0.000000 0.500000 0.250000 0.008866 Uiso 1.000000 4 d d
Ti1 Ti 0.000000 0.000000 0.000000 0.009499 Uiso 0.050000 2 a d

loop_
 _atom_site_aniso_label
 _atom_site_aniso_U_11
 _atom_site_aniso_U_22
 _atom_site_aniso_U_33
 _atom_site_aniso_U_23
 _atom_site_aniso_U_13
 _atom_site_aniso_U_12
Nb1 0.000000 0.000000 0.000000 0.000000 0.000000 0.000000 
Ni1 0.000000 0.000000 0.000000 0.000000 0.000000 0.000000 
Ni2 0.000000 0.000000 0.000000 0.000000 0.000000 0.000000 
Ti1 0.000000 0.000000 0.000000 0.000000 0.000000 0.000000 


data_Del_1522733

_audit_creation_date              '3/26/2020 4:57:29 AM'
_audit_creation_method            'Generated by HighScore Plus 3.0.5'

_database_code_ICSD                    6

_chemical_name_systematic         
;
Del 1522733
;

_chemical_formula_structural      
;
Nb Ni3
;

_chemical_formula_sum             
;
Nb2.00 Ni6.00
;

_publ_section_title               
;
Crystalline structure of Ni3 Nb and Ni3 Ta compounds
;

_publ_author_name                 
;
Pylaeva, E.N., Kripyakevich, P.I., Gladyshevskii, E.I.
;

_journal_coden_ASTM               'ZNOKA'
_journal_volume                   3
_journal_year                     1958
_journal_page_first               1626
_journal_page_last                1631

loop_
 _symmetry_equiv_pos_as_xyz
 'X, Y, Z'
 '-X+1/2, -Y+1/2, Z'
 'X+1/2, -Y, -Z'
 '-X, Y+1/2, -Z'
 '-X, -Y, -Z'
 'X+1/2, Y+1/2, -Z'
 '-X+1/2, Y, Z'
 'X, -Y+1/2, Z'

_xact_pref_orient_vector_h        0.00000000
_xact_pref_orient_vector_k        0.00000000
_xact_pref_orient_vector_l        1.00000000
_xact_pref_orient_param           1.000000
_xact_scale_factor                0.000100
_xact_cagliotti_U                 0.000000
_xact_cagliotti_V                 0.000000
_xact_cagliotti_W                 0.010000
_xact_shape_param_1               0.600000
_xact_shape_param_2               0.000000
_xact_shape_param_3               0.000000
_xact_asym_param_1                0.000000
_xact_asym_param_2                0.000000
_cell_length_a                    4.250000
_cell_length_b                    5.110000
_cell_length_c                    4.540000
_cell_angle_alpha                 90
_cell_angle_beta                  90
_cell_angle_gamma                 90

_symmetry_space_group_name_H-M    'P m m n'
_symmetry_Int_Tables_number       59


loop_
 _atom_site_label
 _atom_site_type_symbol
 _atom_site_fract_x
 _atom_site_fract_y
 _atom_site_fract_z
 _atom_site_U_iso_or_equiv
 _atom_site_thermal_displace_type
 _atom_site_occupancy
 _atom_site_symmetry_multiplicity
 _atom_site_Wyckoff_symbol
 _atom_site_calc_flag
Nb1 Nb 0.250000 0.750000 0.167000 0.006333 Uiso 1.000000 2 b d
Ni1 Ni 0.250000 0.250000 0.167000 0.006333 Uiso 1.000000 2 a d
Ni2 Ni 0.250000 0.000000 0.667000 0.006333 Uiso 1.000000 4 e d

loop_
 _atom_site_aniso_label
 _atom_site_aniso_U_11
 _atom_site_aniso_U_22
 _atom_site_aniso_U_33
 _atom_site_aniso_U_23
 _atom_site_aniso_U_13
 _atom_site_aniso_U_12
Nb1 0.000000 0.000000 0.000000 0.000000 0.000000 0.000000 
Ni1 0.000000 0.000000 0.000000 0.000000 0.000000 0.000000 
Ni2 0.000000 0.000000 0.000000 0.000000 0.000000 0.000000 


data_Fe2Nb_198050-ICSD

_audit_creation_date              '3/26/2020 4:57:29 AM'
_audit_creation_method            'Generated by HighScore Plus 3.0.5'

_database_code_ICSD               198050

_chemical_name_systematic         
;
Niobium iron (1/2)
;

_chemical_formula_structural      
;
Nb Fe2
;

_chemical_formula_sum             
;
Fe2 Nb1
;

_publ_section_title               
;
Phase equilibria in the niobium-gallium-iron system at 1000C
;

_publ_section_comment             
;
Cell and Type only determined
;

_publ_author_name                 
;
Drys, M., Sosnowski, J., Folcik, L.
;

_journal_coden_ASTM               'JCOMAH'

loop_
 _symmetry_equiv_pos_as_xyz
 'X, Y, Z'
 '-Y+X, X, Z+1/2'
 '-Y, -Y+X, Z'
 '-X, -Y, Z+1/2'
 '-X+Y, -X, Z'
 'Y, -X+Y, Z+1/2'
 '-Y+X, -Y, -Z'
 '-X, -X+Y, -Z'
 'Y, X, -Z'
 '-Y, -X, -Z+1/2'
 '-X+Y, Y, -Z+1/2'
 'X, -Y+X, -Z+1/2'
 '-X, -Y, -Z'
 '-X+Y, -X, -Z+1/2'
 'Y, -X+Y, -Z'
 'X, Y, -Z+1/2'
 '-Y+X, X, -Z'
 '-Y, -Y+X, -Z+1/2'
 '-X+Y, Y, Z'
 'X, -Y+X, Z'
 '-Y, -X, Z'
 'Y, X, Z+1/2'
 '-Y+X, -Y, Z+1/2'
 '-X, -X+Y, Z+1/2'

_xact_pref_orient_vector_h        0.00000000
_xact_pref_orient_vector_k        0.00000000
_xact_pref_orient_vector_l        1.00000000
_xact_pref_orient_param           1.000000
_xact_scale_factor                0.000100
_xact_cagliotti_U                 0.000000
_xact_cagliotti_V                 0.000000
_xact_cagliotti_W                 0.010000
_xact_shape_param_1               0.600000
_xact_shape_param_2               0.000000
_xact_shape_param_3               0.000000
_xact_asym_param_1                0.000000
_xact_asym_param_2                0.000000
_cell_length_a                    4.840000
_cell_length_b                    4.840000
_cell_length_c                    7.898000
_cell_angle_alpha                 90
_cell_angle_beta                  90
_cell_angle_gamma                 120

_symmetry_space_group_name_H-M    'P 63/m m c'
_symmetry_Int_Tables_number       194


loop_
 _atom_site_label
 _atom_site_type_symbol
 _atom_site_fract_x
 _atom_site_fract_y
 _atom_site_fract_z
 _atom_site_U_iso_or_equiv
 _atom_site_thermal_displace_type
 _atom_site_occupancy
 _atom_site_symmetry_multiplicity
 _atom_site_Wyckoff_symbol
 _atom_site_calc_flag
Nb1 Nb 0.333333 0.666667 0.563000 0.000000 Uiso 1.000000 4 f d
Fe1 Fe 0.170000 0.340000 0.250000 0.000000 Uiso 1.000000 6 h d
Fe2 Fe 0.000000 0.000000 0.000000 0.000000 Uiso 1.000000 2 a d

loop_
 _atom_site_aniso_label
 _atom_site_aniso_U_11
 _atom_site_aniso_U_22
 _atom_site_aniso_U_33
 _atom_site_aniso_U_23
 _atom_site_aniso_U_13
 _atom_site_aniso_U_12
Nb1 0.000000 0.000000 0.000000 0.000000 0.000000 0.000000 
Fe1 0.000000 0.000000 0.000000 0.000000 0.000000 0.000000 
Fe2 0.000000 0.000000 0.000000 0.000000 0.000000 0.000000 

